3833
n_efield_old=3 energy=-73601.29559478 cutoff=10.58354498 nneightol=1.20000000 Lattice="151.78809742       0.19078136      -0.00000000       0.12016159      95.72028430       0.00000000      -0.00000000       0.00000000      34.23075396" Properties=species:S:1:pos:R:3:Z:I:1:map_shift:I:3:n_neighb:I:1:force:R:3:charge:R:1:fixdip:L:1:efield:R:3:dipoles:R:3:efield_old1:R:3:efield_old2:R:3:efield_old3:R:3:move_mask:I:1
Si            107.50039368     75.38526096     -0.08729705      14      -1      -1       0      86     -0.00000592      0.00003119     -0.00003669      2.85911880    F     -0.74669416     -4.17688306     -1.03847811      0.00000000      0.00000000      0.00000000      0.23583104     -2.42475599     -0.16610038      0.23583104     -2.42475599     -0.16610038      0.23583104     -2.42475599     -0.16610038       1
Si             13.16960174     75.16353059     -0.09127457      14       0      -1       0      47      0.00005960     -0.00001910     -0.00011435      2.85911880    F      1.45612711     -4.27720744     -2.05293107      0.00000000      0.00000000      0.00000000      0.30924112     -1.98112487     -0.25928240      0.30924112     -1.98112487     -0.25928240      0.30924112     -1.98112487     -0.25928240       1
Si             16.17859917     74.65095038     -0.09152211      14       0      -1       0      65     -0.00007267     -0.00000815     -0.00004240      2.85911880    F     -2.01757224     -3.98194277     -1.64165755      0.00000000      0.00000000      0.00000000     -0.69090716     -2.18027638     -0.07343813     -0.69090716     -2.18027638     -0.07343813     -0.69090716     -2.18027638     -0.07343813       1
Si             34.72573598     74.57485257     -0.04668615      14       0      -1       0      84      0.00003923      0.00001472      0.00004136      2.85911880    F      0.08318131     -3.18470390     -1.23995448      0.00000000      0.00000000      0.00000000      0.61195516     -1.40780133     -0.44670616      0.61195517     -1.40780133     -0.44670616      0.61195516     -1.40780133     -0.44670616       1
Si             31.69675176     74.66964359     -0.05243672      14       0      -1       0      90      0.00003983      0.00004989     -0.00001679      2.85911880    F      0.09419569     -3.85918628     -1.18644347      0.00000000      0.00000000      0.00000000     -0.60957803     -1.90262649     -0.34306229     -0.60957803     -1.90262649     -0.34306229     -0.60957803     -1.90262649     -0.34306229       1
Si            104.44217393     75.57453489     -0.07941507      14      -1      -1       0      87      0.00007042      0.00005674     -0.00005003      2.85911880    F      0.04615561     -3.88937920     -1.12487793      0.00000000      0.00000000      0.00000000     -0.60585257     -2.00148546     -0.24419383     -0.60585257     -2.00148546     -0.24419383     -0.60585257     -2.00148546     -0.24419383       1
Si            100.05982631     72.24301307      0.00445732      14      -1      -1       0     122      0.00003992      0.00003500      0.00003994      2.85911880    F      0.38627766     -1.29131227     -1.38161477      0.00000000      0.00000000      0.00000000      0.34742712     -1.49341683     -1.27980771      0.34742712     -1.49341683     -1.27980771      0.34742712     -1.49341683     -1.27980771       1
Si             53.08045391     74.07111986     -0.06672272      14       0      -1       0      85      0.00006586     -0.00000177      0.00003308      2.85911880    F      0.22474190     -3.60245025     -0.84073974      0.00000000      0.00000000      0.00000000     -0.00397580     -2.04514707     -0.09871689     -0.00397580     -2.04514707     -0.09871689     -0.00397580     -2.04514707     -0.09871689       1
Si             97.58684187     73.88352516     -0.06632564      14      -1      -1       0     101     -0.00002405      0.00002419      0.00000434      2.85911880    F      0.13577367     -3.40445758     -0.64348511      0.00000000      0.00000000      0.00000000      0.15309972     -1.90220340     -0.03204687      0.15309972     -1.90220340     -0.03204687      0.15309972     -1.90220340     -0.03204687       1
Si            103.01008631     72.98994237     -0.00018153      14      -1      -1       0     103      0.00005144     -0.00004219     -0.00001555      2.85911880    F      0.02590283     -1.31331584     -1.38321472      0.00000000      0.00000000      0.00000000      0.01985262     -1.45483706     -1.44656050      0.01985262     -1.45483706     -1.44656050      0.01985262     -1.45483706     -1.44656050       1
Si            114.45730939     73.91996087     -0.05675102      14      -1      -1       0     101      0.00000468     -0.00003069     -0.00001084      2.85911880    F     -0.71357486     -3.48020898     -0.88023178      0.00000000      0.00000000      0.00000000     -1.02215572     -1.94336809     -0.34706881     -1.02215572     -1.94336809     -0.34706881     -1.02215572     -1.94336809     -0.34706881       1
Si            117.46938446     74.05541826     -0.04641730      14      -1      -1       0      99      0.00000328     -0.00002933      0.00000859      2.85911880    F      0.97463590     -2.90627367     -0.96721924      0.00000000      0.00000000      0.00000000      0.99624495     -1.48066399     -0.34612739      0.99624495     -1.48066399     -0.34612739      0.99624495     -1.48066399     -0.34612739       1
Si            127.21341680     74.93687122     -0.05373882      14      -1      -1       0      65      0.00011247     -0.00007126     -0.00007249      2.85911880    F     -1.39439160     -2.81747809     -2.13916747      0.00000000      0.00000000      0.00000000     -0.33260364     -0.63933091     -0.76718725     -0.33260364     -0.63933091     -0.76718725     -0.33260364     -0.63933091     -0.76718725       1
Si             26.08070753     71.96302833     -0.10702802      14       0      -1       0     119     -0.00001461     -0.00002615     -0.00003503      2.85911880    F     -1.70254076     -2.86976799     -1.38477559      0.00000000      0.00000000      0.00000000     -0.78941577     -1.13444152     -0.36112973     -0.78941577     -1.13444152     -0.36112973     -0.78941577     -1.13444152     -0.36112973       1
Si             28.30670668     70.03945777      0.01008397      14       0      -1       0     127     -0.00005388     -0.00004509      0.00003497      2.85911880    F      0.19720434      1.87227878     -1.77667917      0.00000000      0.00000000      0.00000000      0.40794656      0.74472978     -0.54792381      0.40794656      0.74472978     -0.54792381      0.40794656      0.74472978     -0.54792381       1
Si             61.28572158     73.29644662     -0.06491977      14       0      -1       0      98     -0.00010541      0.00011097     -0.00010942      2.85911880    F     -0.81205894     -4.06389159     -0.92884040      0.00000000      0.00000000      0.00000000      0.23537908     -2.42835748     -0.37391352      0.23537908     -2.42835748     -0.37391352      0.23537908     -2.42835748     -0.37391352       1
Si             68.33436889     73.26919761     -0.06651318      14       0      -1       0     101      0.00005023      0.00004619     -0.00003403      2.85911880    F      0.81748954     -3.29291314     -0.65733011      0.00000000      0.00000000      0.00000000      0.16196237     -2.01311117     -0.08295921      0.16196237     -2.01311117     -0.08295921      0.16196237     -2.01311117     -0.08295921       1
Si             71.34275081     73.35434159      0.01965244      14       0      -1       0     100      0.00002196     -0.00000032     -0.00000703      2.85911880    F      0.78387705     -1.92966741     -1.52289127      0.00000000      0.00000000      0.00000000      0.44016339     -1.86656275     -1.20699313      0.44016339     -1.86656275     -1.20699313      0.44016339     -1.86656275     -1.20699313       1
Si             73.60411699     75.21652222     -0.05300740      14       0      -1       0      74     -0.00000008      0.00001830      0.00001234      2.85911880    F     -1.43740006     -3.51177122     -1.25906000      0.00000000      0.00000000      0.00000000     -1.17451606     -1.44108773     -0.45331013     -1.17451606     -1.44108773     -0.45331013     -1.17451606     -1.44108773     -0.45331013       1
Si             76.30014981     73.87687774     -0.04449805      14      -1      -1       0      96     -0.00004534      0.00008817     -0.00002384      2.85911880    F     -0.28725571     -3.08666454     -0.97233186      0.00000000      0.00000000      0.00000000      0.32368180     -1.83777148     -0.36556465      0.32368180     -1.83777148     -0.36556465      0.32368180     -1.83777148     -0.36556465       1
Si             30.59422596     72.00576344      0.00129628      14       0      -1       0     116      0.00001803     -0.00005016      0.00000166      2.85911880    F      1.20831620     -1.81219770     -1.42403065      0.00000000      0.00000000      0.00000000      1.13710569     -1.71554283     -0.88423616      1.13710569     -1.71554283     -0.88423616      1.13710569     -1.71554283     -0.88423616       1
Si             58.38615344     74.11132048     -0.04443622      14       0      -1       0      92      0.00008954     -0.00000492     -0.00008515      2.85911880    F     -0.94892520     -2.80948195     -1.15879404      0.00000000      0.00000000      0.00000000     -0.83664638     -1.13786747     -0.44660972     -0.83664638     -1.13786747     -0.44660972     -0.83664638     -1.13786747     -0.44660972       1
Si             55.75136457     72.69948358      0.01512521      14       0      -1       0     104      0.00002351      0.00003973      0.00002764      2.85911880    F     -0.31477363     -1.92865142     -1.50822689      0.00000000      0.00000000      0.00000000     -0.30185836     -2.00267166     -1.38160386     -0.30185836     -2.00267166     -1.38160386     -0.30185836     -2.00267166     -1.38160386       1
Si             80.50371756     71.03396851      0.01279213      14      -1      -1       0     116     -0.00001597      0.00000027      0.00000162      2.85911880    F      0.45283951     -1.32568058     -1.31982038      0.00000000      0.00000000      0.00000000      0.32428381     -1.70358232     -1.12063497      0.32428381     -1.70358232     -1.12063497      0.32428381     -1.70358232     -1.12063497       1
Si             82.43242262     73.22106587     -0.04973634      14      -1      -1       0      98      0.00010139      0.00005369     -0.00006162      2.85911880    F     -1.26666820     -3.04485970     -0.96507395      0.00000000      0.00000000      0.00000000     -1.17538360     -1.62840913     -0.28746669     -1.17538360     -1.62840913     -0.28746669     -1.17538360     -1.62840913     -0.28746669       1
Si             85.42469364     72.91783969     -0.04738782      14      -1      -1       0      94     -0.00013919      0.00009728     -0.00004438      2.85911880    F      0.71336864     -3.15209135     -0.91950123      0.00000000      0.00000000      0.00000000      0.93257879     -1.69915284     -0.34926574      0.93257879     -1.69915284     -0.34926574      0.93257879     -1.69915284     -0.34926574       1
Si            122.64265745     72.28339021      0.00568505      14      -1      -1       0     106     -0.00002256      0.00000884      0.00001125      2.85911880    F      0.04281911     -1.24894910     -1.50741676      0.00000000      0.00000000      0.00000000     -0.20980664     -1.67687366     -1.45379240     -0.20980664     -1.67687366     -1.45379240     -0.20980664     -1.67687366     -1.45379240       1
Si            124.17726353     74.82891770     -0.05359733      14      -1      -1       0      80      0.00000858     -0.00003920      0.00007801      2.85911880    F     -0.58868573     -3.94723271     -1.15387010      0.00000000      0.00000000      0.00000000     -1.22817245     -1.83866531     -0.42045477     -1.22817245     -1.83866531     -0.42045477     -1.22817245     -1.83866531     -0.42045477       1
Si             36.58763516     72.24591909      0.01327250      14       0      -1       0     100     -0.00001330     -0.00000561     -0.00000433      2.85911880    F     -0.41936328     -1.88520829     -1.56851352      0.00000000      0.00000000      0.00000000     -0.16446041     -1.83225659     -1.43594502     -0.16446041     -1.83225659     -1.43594502     -0.16446041     -1.83225659     -1.43594502       1
Si             39.57323668     71.95111206     -0.06765978      14       0      -1       0     102     -0.00003940      0.00003638      0.00001735      2.85911880    F     -1.30308715     -3.01288245     -0.61271824      0.00000000      0.00000000      0.00000000     -0.49088471     -1.88872252     -0.06752219     -0.49088471     -1.88872252     -0.06752219     -0.49088471     -1.88872252     -0.06752219       1
Si             64.53110576     69.12071960      0.01394352      14       0      -1       0     139     -0.00000185      0.00005529     -0.00001608      2.85911880    F      0.25744615     -0.81189099     -1.20554176      0.00000000      0.00000000      0.00000000      0.35364308     -1.00240695     -1.10848929      0.35364308     -1.00240695     -1.10848929      0.35364307     -1.00240695     -1.10848929       1
Si             92.11472609     72.54800901     -0.05365596      14      -1      -1       0     100      0.00004963      0.00004443     -0.00002799      2.85911880    F      0.56474010     -2.81559933     -0.49869158      0.00000000      0.00000000      0.00000000      0.23269565     -1.70526289     -0.06421457      0.23269565     -1.70526289     -0.06421457      0.23269565     -1.70526289     -0.06421457       1
Si            110.17669478     70.43427110      0.01384671      14      -1      -1       0     135     -0.00000749     -0.00001280     -0.00000577      2.85911880    F     -0.31898542     -0.60077078     -1.27439394      0.00000000      0.00000000      0.00000000     -0.37334730     -0.93195244     -1.11088059     -0.37334730     -0.93195244     -1.11088059     -0.37334730     -0.93195244     -1.11088059       1
Si             20.46319372     71.77621845     -0.05786816      14       0      -1       0     111     -0.00007936     -0.00001182      0.00004815      2.85911880    F     -0.11497990     -2.58873586     -0.44094897      0.00000000      0.00000000      0.00000000      0.11913571     -1.77271873     -0.12253164      0.11913571     -1.77271873     -0.12253164      0.11913571     -1.77271873     -0.12253164       1
Si             47.92539862     71.94988228     -0.06412707      14       0      -1       0     107      0.00002802     -0.00004500     -0.00003179      2.85911880    F      1.15049692     -3.12462326     -0.52857704      0.00000000      0.00000000      0.00000000      0.28825832     -1.78666772     -0.09229476      0.28825832     -1.78666772     -0.09229476      0.28825832     -1.78666772     -0.09229476       1
Si             50.92275144     72.09789768      0.02141794      14       0      -1       0     106     -0.00000532      0.00004440      0.00004995      2.85911880    F      0.72768748     -1.77569042     -1.39258198      0.00000000      0.00000000      0.00000000      0.59890657     -1.82993553     -1.20725995      0.59890657     -1.82993553     -1.20725995      0.59890657     -1.82993553     -1.20725995       1
Si             87.14462806     70.51879377      0.01020263      14      -1      -1       0     116     -0.00006762      0.00002180      0.00003724      2.85911880    F     -0.23091327     -1.42905191     -1.31286251      0.00000000      0.00000000      0.00000000     -0.11755690     -1.61862434     -1.32758605     -0.11755690     -1.61862434     -1.32758605     -0.11755690     -1.61862434     -1.32758605       1
Si             95.07325781     72.31010758      0.01941336      14      -1      -1       0     104     -0.00002143      0.00001879     -0.00000801      2.85911880    F      0.69871777     -1.82506384     -1.41731611      0.00000000      0.00000000      0.00000000      0.60500649     -1.65153520     -1.21017388      0.60500649     -1.65153520     -1.21017388      0.60500649     -1.65153520     -1.21017388       1
Si            105.30096122     71.04500487      0.01729094      14      -1      -1       0     131      0.00001517      0.00001477     -0.00000594      2.85911880    F      0.46336464     -0.45210300     -1.20100644      0.00000000      0.00000000      0.00000000      0.51674801     -0.95623997     -0.85119729      0.51674801     -0.95623997     -0.85119729      0.51674801     -0.95623997     -0.85119729       1
Si            107.95818847     72.54419311      0.00675825      14      -1      -1       0     107     -0.00001372      0.00003565      0.00004261      2.85911880    F     -0.58220331     -1.54953206     -1.12067195      0.00000000      0.00000000      0.00000000     -0.56622417     -1.63255493     -1.09382617     -0.56622417     -1.63255493     -1.09382617     -0.56622417     -1.63255493     -1.09382617       1
Si            113.03825943     71.39675879      0.01223221      14      -1      -1       0     118      0.00001487     -0.00002792     -0.00002889      2.85911880    F      0.27529512     -1.62195562     -1.05694934      0.00000000      0.00000000      0.00000000      0.15883382     -1.72629061     -1.12735671      0.15883382     -1.72629061     -1.12735671      0.15883382     -1.72629061     -1.12735671       1
Si             18.14131111     69.87243501      0.01449297      14       0      -1       0     123      0.00004511      0.00004612      0.00003429      2.85911880    F      0.39374907     -0.79501898     -1.45491330      0.00000000      0.00000000      0.00000000      0.22617967     -1.28823504     -1.13708520      0.22617967     -1.28823504     -1.13708520      0.22617967     -1.28823504     -1.13708520       1
Si             23.33349345     71.20303378      0.01516888      14       0      -1       0     118      0.00005693      0.00002497      0.00007132      2.85911880    F      0.71562143     -1.70222333     -1.39710354      0.00000000      0.00000000      0.00000000      0.61576737     -1.35111866     -1.17803263      0.61576737     -1.35111866     -1.17803263      0.61576737     -1.35111866     -1.17803263       1
Si             67.15591107     70.59124412      0.01444221      14       0      -1       0     127     -0.00007182     -0.00006481     -0.00000696      2.85911880    F      0.12084695     -1.27729810     -1.14155537      0.00000000      0.00000000      0.00000000      0.19174822     -1.55087089     -1.11231251      0.19174822     -1.55087089     -1.11231251      0.19174822     -1.55087089     -1.11231251       1
Si             12.79395472     72.23532186      0.02305133      14       0      -1       0      68      0.00003874      0.00012168      0.00004778      2.85911880    F      1.56340298     -0.17941787     -1.83442514      0.00000000      0.00000000      0.00000000      1.36057715     -0.13297340     -1.34404787      1.36057715     -0.13297340     -1.34404787      1.36057715     -0.13297340     -1.34404787       1
Si             72.29559720     70.45815263      0.01573856      14       0      -1       0     122      0.00002464      0.00002213      0.00000364      2.85911880    F     -0.15186419     -0.61948433     -1.22310375      0.00000000      0.00000000      0.00000000     -0.28906506     -1.25593348     -0.86923852     -0.28906506     -1.25593348     -0.86923852     -0.28906506     -1.25593348     -0.86923852       1
Si             77.45022576     71.10123377      0.00921501      14      -1      -1       0     123     -0.00014333     -0.00000664     -0.00000465      2.85911880    F     -0.39031382     -1.06186045     -1.45694940      0.00000000      0.00000000      0.00000000     -0.32794254     -1.43437841     -1.51742298     -0.32794254     -1.43437841     -1.51742298     -0.32794254     -1.43437841     -1.51742298       1
Si            119.58318778     71.97881534      0.00843536      14      -1      -1       0     114      0.00002727     -0.00001377      0.00002940      2.85911880    F     -0.15209722     -1.53014359     -1.38803940      0.00000000      0.00000000      0.00000000     -0.02069319     -1.73068986     -1.36785754     -0.02069319     -1.73068986     -1.36785754     -0.02069319     -1.73068986     -1.36785754       1
Si            124.52137331     69.87626409      0.01862556      14      -1      -1       0     123     -0.00001903     -0.00003297     -0.00000852      2.85911880    F     -0.00090048     -0.90853292     -1.26924247      0.00000000      0.00000000      0.00000000     -0.25125481     -1.47313134     -0.91543300     -0.25125481     -1.47313134     -0.91543300     -0.25125481     -1.47313134     -0.91543300       1
Si             96.14898464     69.44374925      0.01197026      14      -1      -1       0     132     -0.00001679      0.00003188     -0.00001060      2.85911880    F      0.15357582     -0.71401045     -1.16863242      0.00000000      0.00000000      0.00000000      0.27378970     -1.09627106     -1.08058010      0.27378970     -1.09627106     -1.08058010      0.27378970     -1.09627106     -1.08058010       1
Si             15.81495274     71.73393014      0.01205696      14       0      -1       0      89     -0.00006756     -0.00007513     -0.00007338      2.85911880    F      0.03403256     -0.55892333     -1.56093421      0.00000000      0.00000000      0.00000000      0.04621272     -0.47727915     -1.17183162      0.04621272     -0.47727915     -1.17183162      0.04621272     -0.47727915     -1.17183162       1
Si             48.95100361     67.55123665      0.01625923      14       0      -1       0     145     -0.00000728      0.00003949      0.00006902      2.85911880    F      0.53997920     -0.16084127     -1.10581470      0.00000000      0.00000000      0.00000000      0.56405109     -0.54763087     -0.76920688      0.56405109     -0.54763087     -0.76920688      0.56405109     -0.54763087     -0.76920688       1
Si             90.19798238     70.27433433      0.01384544      14      -1      -1       0     126      0.00003631     -0.00005531     -0.00000786      2.85911880    F      0.15017891     -1.33032047     -1.33925827      0.00000000      0.00000000      0.00000000      0.13651198     -1.61817137     -1.25018074      0.13651198     -1.61817137     -1.25018074      0.13651198     -1.61817137     -1.25018074       1
Si             32.35229488     69.71721331      0.00521170      14       0      -1       0     134      0.00001100     -0.00000619      0.00002836      2.85911880    F      0.48840179      0.27200618     -1.22502165      0.00000000      0.00000000      0.00000000      0.18021891     -0.16386833     -0.65102948      0.18021891     -0.16386833     -0.65102948      0.18021891     -0.16386833     -0.65102948       1
Si             43.71030554     68.35254728      0.01608674      14       0      -1       0     130      0.00000399      0.00002438     -0.00006085      2.85911880    F      0.27628975     -0.87336316     -1.07398080      0.00000000      0.00000000      0.00000000      0.35314803     -1.02495504     -0.95124125      0.35314803     -1.02495504     -0.95124125      0.35314803     -1.02495504     -0.95124125       1
Si            127.55929249     69.85999191      0.00052759      14      -1      -1       0     104     -0.00003241      0.00001570     -0.00004678      2.85911880    F     -1.31450061     -0.46227653     -1.53040169      0.00000000      0.00000000      0.00000000     -1.38450742     -0.78488384     -1.25884806     -1.38450742     -0.78488384     -1.25884806     -1.38450742     -0.78488384     -1.25884806       1
Si             10.70865459     70.09329992     -0.03719396      14       0      -1       0      70      0.00013063      0.00002993      0.00000875      2.85911880    F      3.23251008      0.12710637     -1.37407586      0.00000000      0.00000000      0.00000000      1.17890323      0.43515136     -0.67072818      1.17890323      0.43515136     -0.67072818      1.17890323      0.43515136     -0.67072818       1
Si             35.31737670     69.46405687      0.01263530      14       0      -1       0     137      0.00002662     -0.00001736     -0.00006062      2.85911880    F     -0.13812602     -1.04812410     -1.14753956      0.00000000      0.00000000      0.00000000     -0.19529024     -1.24825753     -1.18289294     -0.19529024     -1.24825753     -1.18289294     -0.19529024     -1.24825753     -1.18289294       1
Si             40.83649793     69.27438760      0.01179536      14       0      -1       0     130      0.00002846     -0.00005887     -0.00001044      2.85911880    F      0.23698482     -1.52852319     -1.11232233      0.00000000      0.00000000      0.00000000      0.33760810     -1.77851644     -1.24955940      0.33760810     -1.77851644     -1.24955940      0.33760810     -1.77851644     -1.24955940       1
Si             46.52346448     69.33964332      0.00882665      14       0      -1       0     130      0.00004337     -0.00000314     -0.00004417      2.85911880    F     -0.19444659     -1.14701057     -1.17742893      0.00000000      0.00000000      0.00000000     -0.09863191     -1.34651659     -1.29120009     -0.09863191     -1.34651659     -1.29120009     -0.09863191     -1.34651659     -1.29120009       1
Si             27.11925882     67.31126563      0.00252428      14       0      -1       0     154      0.00002651      0.00001019     -0.00011583      2.85911880    F     -2.09410321     -1.61049503     -0.96131977      0.00000000      0.00000000      0.00000000     -1.61515524     -1.56976247     -0.00860514     -1.61515524     -1.56976247     -0.00860513     -1.61515524     -1.56976247     -0.00860514       1
Si             56.16850098     69.74766079      0.01151366      14       0      -1       0     132      0.00002370     -0.00000243      0.00002457      2.85911880    F      0.54104122     -0.57776908     -1.24557054      0.00000000      0.00000000      0.00000000      0.49771171     -1.03903460     -0.73685911      0.49771171     -1.03903460     -0.73685911      0.49771171     -1.03903460     -0.73685911       1
Si             59.05976063     68.97997875      0.01522106      14       0      -1       0     133      0.00000136     -0.00000380     -0.00000297      2.85911880    F     -0.56053497     -0.68281913     -1.09577500      0.00000000      0.00000000      0.00000000     -0.48431184     -1.25294742     -0.75063950     -0.48431184     -1.25294742     -0.75063950     -0.48431184     -1.25294742     -0.75063950       1
Si             69.68887541     68.83907931      0.01592516      14       0      -1       0     135     -0.00001570     -0.00005436     -0.00001448      2.85911880    F      0.09823646     -0.55195989     -1.18385776      0.00000000      0.00000000      0.00000000      0.16428656     -0.91385148     -1.00447793      0.16428656     -0.91385148     -1.00447793      0.16428656     -0.91385148     -1.00447793       1
Si             99.21918767     69.32695091      0.01574159      14      -1      -1       0     133      0.00002002     -0.00002743      0.00001683      2.85911880    F     -0.20691383     -0.47483293     -1.15680728      0.00000000      0.00000000      0.00000000     -0.02859362     -0.74376062     -1.09700011     -0.02859362     -0.74376062     -1.09700011     -0.02859362     -0.74376062     -1.09700011       1
Si            118.13105190     69.30818222      0.01389935      14      -1      -1       0     141      0.00000682      0.00001515      0.00000288      2.85911880    F     -0.31733227     -0.93182092     -1.09671953      0.00000000      0.00000000      0.00000000     -0.22103407     -1.42901257     -1.00529098     -0.22103407     -1.42901257     -1.00529098     -0.22103407     -1.42901257     -1.00529098       1
Si             75.07218903     69.18828694      0.01414043      14       0      -1       0     139     -0.00000979      0.00003587     -0.00002667      2.85911880    F     -0.49414136     -0.61158398     -1.27206165      0.00000000      0.00000000      0.00000000     -0.51996757     -1.03899580     -1.05530264     -0.51996757     -1.03899580     -1.05530264     -0.51996757     -1.03899580     -1.05530264       1
Si            115.07901617     69.17373829      0.01762176      14      -1      -1       0     142      0.00002012     -0.00002992      0.00001115      2.85911880    F     -0.13432585     -0.43502793     -1.09705386      0.00000000      0.00000000      0.00000000     -0.38215713     -1.08093185     -0.74694844     -0.38215713     -1.08093185     -0.74694844     -0.38215713     -1.08093185     -0.74694844       1
Si             30.13630954     67.67281032      0.00099286      14       0      -1       0     145      0.00004342     -0.00000941      0.00006849      2.85911880    F      2.30688016     -1.08067172     -0.97098039      0.00000000      0.00000000      0.00000000      1.83735803     -0.98003550     -0.12627799      1.83735803     -0.98003550     -0.12627799      1.83735803     -0.98003550     -0.12627799       1
Si             51.52388151     69.16568986      0.01404498      14       0      -1       0     127      0.00000980      0.00004947      0.00005005      2.85911880    F     -0.33972608     -0.77032049     -1.11206489      0.00000000      0.00000000      0.00000000     -0.31295061     -1.14430608     -0.79063116     -0.31295061     -1.14430608     -0.79063116     -0.31295061     -1.14430608     -0.79063116       1
Si             54.10081341     67.53201736      0.01645163      14       0      -1       0     149     -0.00003328      0.00002607     -0.00003174      2.85911880    F     -0.20703942     -0.02756262     -1.21456218      0.00000000      0.00000000      0.00000000     -0.01151305     -0.19490996     -1.01617549     -0.01151305     -0.19490996     -1.01617549     -0.01151305     -0.19490996     -1.01617549       1